   * xtb version 6.5.1 (b24c23e) compiled by 'conda@728c89f4b128' on 2022-07-12
          program call               : xtb coord.xyz --opt

   ID    Z sym.   atoms
    1    6 C      1
    2   35 Br     2
    3    1 H      3-5

          :  Hamiltonian                  GFN2-xTB          :
 * total energy  :    -7.7454456 Eh     change        0.8881784E-15 Eh
 * total energy  :    -7.7455052 Eh     change       -0.5953640E-04 Eh
 * total energy  :    -7.7455070 Eh     change       -0.1846662E-05 Eh
 * total energy  :    -7.7455091 Eh     change       -0.2036416E-05 Eh
   *** GEOMETRY OPTIMIZATION CONVERGED AFTER 4 ITERATIONS ***

 final structure:
================
5
 xtb: 6.5.1 (b24c23e)
C           -0.18542799792684       -0.00015906825566       -0.00317867081942
Br           1.75174521998147        0.00150217627291        0.03002782391470
H           -0.50735322164021       -0.61262621567595       -0.83892126161123
H           -0.52101203601143        1.02453063964012       -0.12405865898492
H           -0.53795096440298       -0.41324853198142        0.93613076750086

          :  Hamiltonian                  GFN2-xTB          :
         :: total energy              -7.745509058873 Eh    ::
         :: gradient norm              0.000124493380 Eh/a0 ::
         :: HOMO-LUMO gap              5.278538886532 eV    ::
         :: SCC energy                -7.803286629462 Eh    ::
         :: -> dispersion             -0.001457696784 Eh    ::
         :: repulsion energy           0.057777528027 Eh    ::

    * Orbital Energies and Occupations

         #    Occupation            Energy/Eh            Energy/eV
      -------------------------------------------------------------
         1        2.0000           -0.8389325             -22.8285
         2        2.0000           -0.6259660             -17.0334
         3        2.0000           -0.5256553             -14.3038
         4        2.0000           -0.5256553             -14.3038
         5        2.0000           -0.5011880             -13.6380
         6        2.0000           -0.4097847             -11.1508
         7        2.0000           -0.4097847             -11.1508 (HOMO)
         8                         -0.2158020              -5.8723 (LUMO)
         9                          0.0356764               0.9708
        10                          0.0356764               0.9708
        11                          0.0532321               1.4485
        12                          0.0532322               1.4485
        13                          0.1191291               3.2417
        14                          0.2051758               5.5831
        15                          0.2051759               5.5831
        16                          0.3886903              10.5768
      -------------------------------------------------------------
                  HL-Gap            0.1939827 Eh            5.2785 eV

     #   Z          covCN         q      C6AA      α(0)
     1   6 C        3.691    -0.023    21.172     6.585
     2  35 Br       0.919    -0.180   189.952    22.222
     3   1 H        0.926     0.068     2.111     2.272
     4   1 H        0.926     0.068     2.111     2.272
     5   1 H        0.926     0.068     2.111     2.272

Wiberg/Mayer (AO) data.
largest (>0.10) Wiberg bond orders for each atom

     #   Z sym  total        # sym  WBO       # sym  WBO       # sym  WBO
 ---------------------------------------------------------------------------
     1   6 C    3.954 --     2 Br   0.992     5 H    0.987     3 H    0.987
                             4 H    0.987
     2  35 Br   1.017 --     1 C    0.992
     3   1 H    0.995 --     1 C    0.987
     4   1 H    0.995 --     1 C    0.987
     5   1 H    0.995 --     1 C    0.987
 ---------------------------------------------------------------------------

molecular dipole:
                 x           y           z       tot (Debye)
 q only:       -0.789      -0.001      -0.014
   full:       -1.470      -0.001      -0.025       3.736

           -------------------------------------------------
          | TOTAL ENERGY               -7.745509058873 Eh   |
          | GRADIENT NORM               0.000124493380 Eh/α |
          | HOMO-LUMO GAP               5.278538886532 eV   |
           -------------------------------------------------

 * finished run on 2024/06/26 at 17:01:54.974
