                         Program Version 4.0.1.2 - RELEASE -
|  1> !CPCM DLPNO-CCSD(T) Extrapolate(2/3,cc)  RIJCOSX GRIDX5 TightSCF KDIIS
|  2> %cpcm
|  3> smd true
|  4> solvent "Ethanol"
|  5> end
|  6> # Number of processors
|  7> %pal nprocs 24 end
|  8> # Memory per core
|  9> %maxcore 4000
| 10> %scf maxiter 500
| 11>     end
| 12> % mdci
| 13>    # Loose cut-off
| 14>    #  TCutPairs 1e-3
| 15>    #  TCutPNO 1e-6
| 16>    #  TCutMKN 1e-3
| 17>    # Normal cut-off
| 18>      TCutPairs 1e-4
| 19>      TCutPNO 3.33e-7
| 20>      TCutMKN 1e-3
| 21>    # Tight cut-off
| 22>    #TCutPairs 1e-5
| 23>    #TCutPNO 1e-7
| 24>    #TCutMKN 1e-4
| 25>    # Faster/less disk-IO for large jobs
| 26>    #LocalTrafo 3
| 27>    Density None
| 28> end
| 29> % output
| 30>    printlevel mini
| 31>    print[ P_SCFInfo ] 1
| 32>    print[ P_SCFIterInfo ] 1
| 33>    print[ P_OrbEn ] 0
| 34>    print[ P_Cartesian ] 0
| 35> end
| 36> % elprop
| 37>    Dipole False
| 38> end
| 39> * xyz 0 1
| 40>  C                  0.74226000   -0.00003100    0.00001400
| 41>  C                  1.46825400   -1.13142100    0.38285400
| 42>  C                  1.46820300    1.13137900   -0.38286000
| 43>  C                  2.85761900   -1.08050600    0.36731900
| 44>  H                  0.96686600   -2.03821800    0.70758800
| 45>  C                  2.85759500    1.08051700   -0.36735800
| 46>  H                  0.96679200    2.03822400   -0.70741200
| 47>  H                  3.43660900   -1.95033500    0.66793600
| 48>  H                  3.43654500    1.95041200   -0.66787200
| 49>  C                 -0.74225700    0.00000400    0.00002000
| 50>  C                 -1.46822600    1.13141600    0.38281200
| 51>  C                 -1.46822900   -1.13140000   -0.38285000
| 52>  C                 -2.85760200    1.08049200    0.36738900
| 53>  H                 -0.96683600    2.03821400    0.70750400
| 54>  C                 -2.85761400   -1.08049800   -0.36738900
| 55>  H                 -0.96682500   -2.03824300   -0.70743500
| 56>  H                 -3.43657000    1.95039300    0.66784600
| 57>  H                 -3.43659500   -1.95038200   -0.66787300
| 58>  N                  3.55771500    0.00003000   -0.00000600
| 59>  N                 -3.55771500   -0.00000100    0.00000700
| 60> *
| 61>
| 62>                          ****END OF INPUT****
 Total Charge           Charge          ....    0
 Multiplicity           Mult            ....    1
 Number of Electrons    NEL             ....   82
E(0)                                       ...   -492.291924259
E(0)                                       ...   -492.291924259
E(CORR)(strong-pairs)                      ...     -1.649387921
E(CORR)(weak-pairs)                        ...     -0.006195398
E(CORR)(corrected)                         ...     -1.655583319
E(TOT)                                     ...   -493.947507578
 Multiplicity           Mult            ....    1
 Number of Electrons    NEL             ....   82
 Basis Dimension        Dim             ....  472
E(0)                                       ...   -492.409850721
E(CORR)(strong-pairs)                      ...     -1.962754742
E(CORR)(weak-pairs)                        ...     -0.010256491
E(CORR)(corrected)                         ...     -1.973011233
E(TOT)                                     ...   -494.382861954
E(CCSD(T))                                 ...   -494.484924085
FINAL SINGLE POINT ENERGY      -494.727418497121
                             ****ORCA TERMINATED NORMALLY****
TOTAL RUN TIME: 0 days 1 hours 0 minutes 57 seconds 506 msec
