 Gaussian 16, Revision C.02,
 Gaussian 16:  Apple M1-G16RevC.02  7-Dec-2021

 -------------------------------
 # opt freq 6-31++g(d,p) pbe1pbe
 -------------------------------

 -------------------
 hf_pbe1pbe_631ppGss
 -------------------
 Symbolic Z-matrix:
 Charge =  0 Multiplicity = 1

 SCF Done:  E(RPBE1PBE) =  -113.187004782     A.U. after    8 cycles
 SCF Done:  E(RPBE1PBE) =  -113.187862239     A.U. after    8 cycles
 SCF Done:  E(RPBE1PBE) =  -113.187880030     A.U. after    7 cycles
 Optimization completed.
    -- Stationary point found.
 Normal termination of Gaussian 16 at Wed Mar  6 10:53:35 2024.

 ----------------------------------------------------------------------
 #N Geom=AllCheck Guess=TCheck SCRF=Check GenChk RPBE1PBE/6-31++G(d,p)
 Freq
 ----------------------------------------------------------------------

 Structure from the checkpoint file:  "co_pbe1pbe_631ppGss.chk"
 -------------------
 hf_pbe1pbe_631ppGss
 -------------------
 Charge =  0 Multiplicity = 1

                         Standard orientation:
 ---------------------------------------------------------------------
 Center     Atomic      Atomic             Coordinates (Angstroms)
 Number     Number       Type             X           Y           Z
 ---------------------------------------------------------------------
      1          6           0        0.000000    0.000000   -0.648237
      2          8           0        0.000000    0.000000    0.486178
 ---------------------------------------------------------------------

 SCF Done:  E(RPBE1PBE) =  -113.187880030     A.U. after    1 cycles

 The electronic state is 1-SG.
 Alpha  occ. eigenvalues --  -19.34669 -10.36501  -1.20119  -0.59981  -0.49449
 Alpha  occ. eigenvalues --   -0.49449  -0.39530
 Alpha virt. eigenvalues --   -0.03034  -0.03034   0.03954   0.06982   0.08199
 Alpha virt. eigenvalues --    0.08199   0.19440   0.22338   0.22338   0.27472
 Alpha virt. eigenvalues --    0.43708   0.65677   0.65677   0.76395   1.04993

 Mulliken charges:
               1
     1  C    0.133750
     2  O   -0.133750
 Sum of Mulliken charges =  -0.00000

 Dipole moment (field-independent basis, Debye):
    X=              0.0000    Y=              0.0000    Z=              0.0509  Tot=              0.0509
 Quadrupole moment (field-independent basis, Debye-Ang):
   XX=            -10.2621   YY=            -10.2621   ZZ=            -12.4002
   XY=              0.0000   XZ=              0.0000   YZ=              0.0000

  Exact polarizability:       9.877       0.000       9.877       0.000       0.000      15.434
 Approx polarizability:      12.256      -0.000      12.256      -0.000      -0.000      23.922

                      1
                     SG
 Frequencies --   2235.8648
 Red. masses --     13.4388
 Frc consts  --     39.5822
 IR Inten    --     89.7869

 - Thermochemistry -
 -------------------
 Temperature   298.150 Kelvin.  Pressure   1.00000 Atm.
 Atom     1 has atomic number  6 and mass  12.00000

 Molecular mass:    27.99491 amu.
 Principal axes and moments of inertia in atomic units:
                           1         2         3
     Eigenvalues --     0.00000  31.50832  31.50832
           X            0.00000  -0.00000   1.00000
           Y            0.00000   1.00000   0.00000
           Z            1.00000   0.00000   0.00000
 This molecule is a prolate symmetric top.
 Rotational symmetry number  1.
 Rotational temperature (Kelvin)      2.74892
 Rotational constant (GHZ):          57.278252
 Zero-point vibrational energy      13373.4 (Joules/Mol)
                                    3.19633 (Kcal/Mol)
 Vibrational temperatures:   3216.91
          (Kelvin)

 Zero-point correction=                           0.005094 (Hartree/Particle)
 Thermal correction to Energy=                    0.007454
 Thermal correction to Enthalpy=                  0.008399
 Thermal correction to Gibbs Free Energy=        -0.014039
 Sum of electronic and zero-point Energies=           -113.182786
 Sum of electronic and thermal Energies=              -113.180426
 Sum of electronic and thermal Enthalpies=            -113.179481
 Sum of electronic and thermal Free Energies=         -113.201919

                     E (Thermal)             CV                S
                      KCal/Mol        Cal/Mol-Kelvin    Cal/Mol-Kelvin
 Total                    4.678              4.973             47.223
 Electronic               0.000              0.000              0.000
 Translational            0.889              2.981             35.923
 Rotational               0.592              1.987             11.300
 Vibrational              3.196              0.005              0.000

 Optimization completed.
    -- Stationary point found.
 Normal termination of Gaussian 16 at Wed Mar  6 10:53:36 2024.
