 Gaussian 16, Revision C.01,
 Gaussian 16:  ES64L-G16RevC.01  3-Jul-2019

 ----------------------------------------------------------------------
 #p Opt EOMCCSD=(nstates=2, root=1) STO-3G Symmetry=(Tight) Population=
 (Regular) Density=(SCF)
 ----------------------------------------------------------------------

 Pyridine_Excited_States_Post_HF_Optimised_S_1__EOM_CCSD_Gas_Phase_Popl
 e_Basis_Sets_STO_3G
 ----------------------------------------------------------------------
 Symbolic Z-matrix:
 Charge =  0 Multiplicity = 1

                         Standard orientation:
 ---------------------------------------------------------------------
 Center     Atomic      Atomic             Coordinates (Angstroms)
 Number     Number       Type             X           Y           Z
 ---------------------------------------------------------------------
      1          7           0       -0.000035   -1.423195   -0.000011
      2          6           0       -1.149493   -0.713509   -0.000105
      3          6           0       -1.200432    0.671365    0.000127
      4          6           0        0.000038    1.373993   -0.000009
      5          6           0        1.200457    0.671307   -0.000117
      6          6           0        1.149462   -0.713559    0.000109
      7          1           0       -2.059231   -1.306894   -0.000399
      8          1           0       -2.152659    1.189329    0.000353
      9          1           0        0.000058    2.460113   -0.000026
     10          1           0        2.152715    1.189222   -0.000310
     11          1           0        2.059166   -1.306988    0.000431
 ---------------------------------------------------------------------

 SCF Done:  E(RHF) =  -243.638267925     A.U. after   12 cycles
 E2 =    -0.3472722986D+00 EUMP2 =    -0.24398554022365D+03
 SCF Done:  E(RHF) =  -243.613044670     A.U. after   12 cycles
 E2 =    -0.3670738484D+00 EUMP2 =    -0.24398011851872D+03
 SCF Done:  E(RHF) =  -243.595318439     A.U. after   12 cycles
 E2 =    -0.3730058442D+00 EUMP2 =    -0.24396832428283D+03
 SCF Done:  E(RHF) =  -243.595625815     A.U. after   10 cycles
 E2 =    -0.3734332017D+00 EUMP2 =    -0.24396905901660D+03
 SCF Done:  E(RHF) =  -243.595578342     A.U. after    9 cycles
 E2 =    -0.3734668351D+00 EUMP2 =    -0.24396904517670D+03

 Excitation energies and oscillator strengths:

 ----------------------------------------------
 Excited State   1:      Singlet-?Sym    4.3331 eV  286.13 nm  f=0.0051
 Right Eigenvector
 Alpha Singles Amplitudes
     I    SymI    A    SymA    Value
    19      1    22      1    0.633072
    19      1    24      1    0.106715
 Beta  Singles Amplitudes
     I    SymI    A    SymA    Value
    19      1    22      1    0.633072
    19      1    24      1    0.106715
 Alpha-Beta  Doubles Amplitudes
     I    SymI    J    SymJ    A    SymA    B    SymB    Value
    19      1    21      1    22      1    22      1   -0.193381
    21      1    19      1    22      1    22      1   -0.193381
 Left  Eigenvector
 Alpha Singles Amplitudes
     I    SymI    A    SymA    Value
    19      1    22      1    0.628343
    19      1    24      1    0.116158
 Beta  Singles Amplitudes
     I    SymI    A    SymA    Value
    19      1    22      1    0.628343
    19      1    24      1    0.116158
 Alpha-Beta  Doubles Amplitudes
     I    SymI    J    SymJ    A    SymA    B    SymB    Value
    19      1    21      1    22      1    22      1   -0.194642
    21      1    19      1    22      1    22      1   -0.194642
 Total Energy, E(EOM-CCSD) =  -243.883072409

 ----------------------------------------------
 Excited State   2:      Singlet-?Sym    5.5589 eV  223.04 nm  f=0.0003
 Right Eigenvector
 Alpha Singles Amplitudes
     I    SymI    A    SymA    Value
    20      1    22      1    0.472540
    21      1    23      1   -0.447744
 Beta  Singles Amplitudes
     I    SymI    A    SymA    Value
    20      1    22      1    0.472540
    21      1    23      1   -0.447744
 Left  Eigenvector
 Alpha Singles Amplitudes
     I    SymI    A    SymA    Value
    20      1    22      1    0.460205
    21      1    23      1   -0.433825
 Beta  Singles Amplitudes
     I    SymI    A    SymA    Value
    20      1    22      1    0.460205
    21      1    23      1   -0.433825
 Alpha-Beta  Doubles Amplitudes
     I    SymI    J    SymJ    A    SymA    B    SymB    Value
    17      1    20      1    22      1    22      1   -0.105114
    17      1    21      1    22      1    23      1   -0.109208
    17      1    21      1    23      1    22      1   -0.104333
    20      1    17      1    22      1    22      1   -0.105114
    20      1    21      1    22      1    24      1    0.105755
    20      1    21      1    24      1    22      1    0.104509
    21      1    17      1    22      1    23      1   -0.104333
    21      1    17      1    23      1    22      1   -0.109208
    21      1    20      1    22      1    24      1    0.104509
    21      1    20      1    24      1    22      1    0.105755
 Ground to excited state transition densities written to RWF  633

 Optimization completed.
    -- Stationary point found.

 Alpha  occ. eigenvalues --  -15.31817 -11.06789 -11.06780 -11.05028 -11.04737
 Alpha  occ. eigenvalues --  -11.04732  -1.14156  -0.98677  -0.96908  -0.79237
 Alpha  occ. eigenvalues --   -0.76705  -0.65153  -0.59981  -0.55755  -0.55294
 Alpha  occ. eigenvalues --   -0.50151  -0.45503  -0.44616  -0.31108  -0.29806
 Alpha  occ. eigenvalues --   -0.27730
 Alpha virt. eigenvalues --    0.22313   0.25314   0.45368   0.56318   0.57106
 Alpha virt. eigenvalues --    0.59852   0.63401   0.68555   0.74898   0.80537
 Alpha virt. eigenvalues --    0.83612   0.86142   0.99919   1.03588

 Mulliken charges:
               1
     1  N   -0.231264
     2  C    0.020086
     3  C   -0.060291
     4  C   -0.048147
     5  C   -0.060291
     6  C    0.020087
     7  H    0.081272
     8  H    0.064336
     9  H    0.068605
    10  H    0.064336
    11  H    0.081272
 Sum of Mulliken charges =  -0.00000

 Dipole moment (field-independent basis, Debye):
    X=              0.0000    Y=              1.8085    Z=              0.0000  Tot=              1.8085
 Quadrupole moment (field-independent basis, Debye-Ang):
   XX=            -27.9255   YY=            -34.7396   ZZ=            -33.8867
   XY=             -0.0002   XZ=              0.0001   YZ=             -0.0000

 Normal termination of Gaussian 16 at Tue Oct  1 22:25:04 2024.
