 Q-Chem 5.1, Q-Chem, Inc., Pleasanton, CA (2018)
 Q-Chem 5.1.0 for Intel X86 EM64T Linux

User input:
--------------------------------------------------------------
$rem
method hf
basis sto-3g
scf_final_print 1
gen_scfman 0
$end

$molecule
0 1
H       0.000000    -0.115747     1.133769
H       0.000000     1.109931    -0.113383
O       0.000000     0.005817    -0.020386
$end
--------------------------------------------------------------

             Standard Nuclear Orientation (Angstroms)
    I     Atom           X                Y                Z
 ----------------------------------------------------------------
    1      H       0.9326633851     0.5261611612     0.0000000000
    2      H      -0.8131841880     0.6246036434    -0.0000000000
    3      O      -0.0149348996    -0.1438456006     0.0000000000
 ----------------------------------------------------------------

    7     -74.9287689504      3.35E-07 Convergence criterion met
 Total energy in the final basis set = -74.92876895

             Orbital Energies (a.u.) and Symmetries
 --------------------------------------------------------------

 Alpha MOs, Restricted
 -- Occupied --
-20.272  -1.202  -0.529  -0.438  -0.390
  1 A'    2 A'    3 A'    4 A'    1 A"

 Beta MOs, Restricted
 -- Occupied --
-20.272  -1.202  -0.529  -0.438  -0.390
  1 A'    2 A'    3 A'    4 A'    1 A"

          Ground-State Mulliken Net Atomic Charges

     Atom                 Charge (a.u.)
  ----------------------------------------
      1 H                     0.106247
      2 H                     0.121653
      3 O                    -0.227900
  ----------------------------------------
  Sum of atomic charges =    -0.000000

                    Cartesian Multipole Moments
 -----------------------------------------------------------------
    Charge (ESU x 10^10)
                -0.0000
    Dipole Moment (Debye)
         X       0.0743      Y       1.4992      Z      -0.0000
       Tot       1.5010
    Quadrupole Moments (Debye-Ang)
        XX      -4.4105     XY      -0.0464     YY      -5.3350
        XZ       0.0000     YZ      -0.0000     ZZ      -6.2325

 Total job time:  0.03s(wall), 0.03s(cpu)
        *  Thank you very much for using Q-Chem.  Have a nice day.  *
