 Q-Chem 5.1, Q-Chem, Inc., Pleasanton, CA (2018)
 Q-Chem 5.1.0 for Intel X86 EM64T Linux

User input:
--------------------------------------------------------------
$rem
jobtype		freq
method		hf
basis		sto-3g
isotopes	true
$end

$molecule
0 1
O         0.0000000000    0.0000000000    0.1271316000
H        -0.7580950000    0.0000000000   -0.5085264000
H         0.7580950000    0.0000000000   -0.5085264000
$end

$isotopes
3 0   ! 3 loops, "0" indicates standard temperature & pressure
1     ! change 1 H to D
 2 2.0141018
2     ! change both H to D
 2 2.0141018
 3 2.0141018
1     ! change O-16 to O-17
 1 16.9991315
$end
--------------------------------------------------------------

             Standard Nuclear Orientation (Angstroms)
    I     Atom           X                Y                Z
 ----------------------------------------------------------------
    1      O      -0.0000000000    -0.0000000000     0.1271316000
    2      H      -0.7580950000    -0.0000000000    -0.5085264000
    3      H       0.7580950000     0.0000000000    -0.5085264000
 ----------------------------------------------------------------

    8     -74.9659011715      3.34e-11  Convergence criterion met
 Total energy in the final basis set =      -74.9659011715

             Orbital Energies (a.u.) and Symmetries
 --------------------------------------------------------------

 Alpha MOs, Restricted
 -- Occupied --
-20.252  -1.258  -0.594  -0.460  -0.393
  1 A1    2 A1    1 B1    3 A1    1 B2

 Beta MOs, Restricted
 -- Occupied --
-20.252  -1.258  -0.594  -0.460  -0.393
  1 A1    2 A1    1 B1    3 A1    1 B2

          Ground-State Mulliken Net Atomic Charges

     Atom                 Charge (a.u.)
  ----------------------------------------
      1 O                    -0.330619
      2 H                     0.165310
      3 H                     0.165310
  ----------------------------------------
  Sum of atomic charges =     0.000000

                    Cartesian Multipole Moments
 -----------------------------------------------------------------
    Charge (ESU x 10^10)
                 0.0000
    Dipole Moment (Debye)
         X      -0.0000      Y      -0.0000      Z      -1.7092
       Tot       1.7092
    Quadrupole Moments (Debye-Ang)
        XX      -4.4852     XY       0.0000     YY      -6.1256
        XZ       0.0000     YZ       0.0000     ZZ      -5.3334

 Frequency:      2169.77                4140.85                4392.07
 Force Cnst:      2.9916                10.5985                12.2450
 Red. Mass:       1.0785                 1.0491                 1.0774
 IR Intens:        7.247                 44.268                 29.943
 Frequency:      1900.61                3090.88                4277.22
 Force Cnst:      2.7999                12.2757                11.5519
 Red. Mass:       1.3155                 2.1809                 1.0717
 IR Intens:       10.544                 19.867                 34.869
 Frequency:      1584.64                2991.45                3211.94
 Force Cnst:      3.3183                11.4659                13.7959
 Red. Mass:       2.2429                 2.1747                 2.2697
 IR Intens:        4.247                 21.742                 13.693
 Frequency:      2165.27                4135.72                4383.12
 Force Cnst:      2.9698                10.5480                12.1520
 Red. Mass:       1.0751                 1.0467                 1.0736
 IR Intens:        7.173                 44.317                 30.107

 STANDARD THERMODYNAMIC QUANTITIES FOR ANHARMONIC VIBRATION -- VPT2

   Zero point vibrational energy: ************ kcal/mol

   Vibrational Enthalpy:       Infinity kcal/mol
   Vibrational Entropy:        Infinity  cal/mol.K

   Total Enthalpy:             Infinity kcal/mol
   Total Entropy:              Infinity  cal/mol.K

 Total job time:  0.09s(wall), 0.09s(cpu)
        *  Thank you very much for using Q-Chem.  Have a nice day.  *
